LAMMPS data file for IDP

11475 atoms
11448 bonds

40 atom types
1 bond types

2.4874076153306360e+03 2.6125923846693595e+03  xlo xhi
2.4874076153306360e+03 2.6125923846693595e+03  ylo yhi
2141.85274 2958.14726 zlo zhi

Masses

   1 131.199997
   2 57.049999
   3 128.199997
   4 101.099998
   5 156.199997
   6 71.080002
   7 115.099998
   8 129.100006
   9 163.199997
   10 99.070000
   11 113.199997
   12 128.100006
   13 186.199997
   14 147.199997
   15 87.080002
   16 137.100006
   17 114.099998
   18 97.120003
   19 103.099998
   20 113.199997
   21 131.199997
   22 57.049999
   23 128.199997
   24 101.099998
   25 156.199997
   26 71.080002
   27 115.099998
   28 129.100006
   29 163.199997
   30 99.070000
   31 113.199997
   32 128.100006
   33 186.199997
   34 147.199997
   35 87.080002
   36 137.100006
   37 114.099998
   38 97.120003
   39 103.099998
   40 113.199997

Atoms

1 1 10 0 2787.04 2783.65 3260.09
2 1 18 0 2784.22 2781.97 3262.03
3 1 2 0 2782.23 2779.07 3263.12
4 1 10 0 2781.09 2776.26 3265.67
5 1 2 0 2784.59 2775.44 3264.59
6 1 10 0 2787.02 2775.51 3267.41
7 1 18 0 2787.97 2774.43 3270.57
8 1 2 0 2785.74 2771.78 3271.59
9 1 6 0 2782.72 2773.12 3270.3
10 1 2 0 2782.01 2776.52 3271.91
11 1 10 0 2784.08 2778.63 3274.36
12 1 18 0 2786.06 2776.29 3276.2
13 1 2 0 2789.54 2774.88 3276.85
14 1 10 0 2790.97 2772.64 3279.51
15 1 2 0 2788.73 2771.33 3282.04
16 1 10 0 2787.53 2767.89 3281.11
17 1 18 0 2788.59 2767.8 3277.53
18 1 2 0 2785.35 2768.46 3275.46
19 1 10 0 2782.26 2769.54 3277.05
20 1 2 0 2784.31 2772.18 3278.8
21 1 10 0 2783.71 2772.26 3282.52
22 1 18 0 2779.98 2770.97 3281.82
23 1 2 0 2777.38 2769.58 3279.45
24 1 10 0 2776.49 2772.06 3276.62
25 1 2 0 2775.45 2770.16 3273.55
26 1 10 0 2777.05 2766.93 3273.55
27 1 18 0 2778.68 2764.61 3270.98
28 1 2 0 2780.05 2762.04 3273.5
29 1 10 0 2780.02 2759.17 3276.27
30 1 2 0 2783.6 2757.3 3276.51
31 1 10 0 2784.57 2754 3274.32
32 1 18 0 2787.16 2751.42 3274.71
33 1 2 0 2788.22 2753.25 3278.02
34 1 6 0 2790.87 2750.69 3278.89
35 1 2 0 2791.84 2746.94 3278.49
36 1 10 0 2795.2 2746.05 3277
37 1 18 0 2798.96 2745.1 3276.66
38 1 2 0 2802.11 2746.6 3275.56
39 1 10 0 2805.72 2745.74 3274.38
40 1 2 0 2806.98 2748.71 3276.3
41 1 10 0 2804.49 2751.18 3277.75
42 1 18 0 2801.42 2753.48 3278.34
43 1 2 0 2799.69 2754.68 3275.27
44 1 10 0 2796.19 2753.22 3275.42
45 1 2 0 2794.35 2754.34 3272.34
46 1 10 0 2791.15 2755.62 3273.17
47 1 18 0 2791.86 2759.25 3274.57
48 1 2 0 2788.59 2761.12 3273.96
49 1 10 0 2785.14 2761.21 3272.22
50 1 2 0 2784.52 2763.31 3268.99
51 1 2 0 2784.97 2766.66 3270.57
52 1 3 0.75 2788.75 2766.28 3271.49
53 1 2 0 2791.97 2768.13 3271.97
54 1 10 0 2795.38 2768.95 3273.57
55 1 18 0 2795.33 2768.47 3277.38
56 1 2 0 2797.96 2765.99 3277.1
57 1 10 0 2801.69 2766.89 3276.79
58 1 2 0 2803.05 2767.86 3280.01
59 1 10 0 2806.3 2769.53 3278.81
60 1 18 0 2805.94 2772.13 3276.38
61 1 2 0 2806.7 2775.22 3274.14
62 1 6 0 2803.93 2774.04 3271.68
63 1 2 0 2804.26 2772.65 3268.17
64 1 10 0 2800.75 2771.86 3266.94
65 1 18 0 2798.03 2774.03 3268.44
66 1 2 0 2794.88 2771.99 3267.68
67 1 10 0 2794.82 2768.23 3267.55
68 1 2 0 2796.74 2765.3 3269.16
69 1 10 0 2796.41 2762.82 3271.93
70 1 18 0 2795.42 2760.64 3269.11
71 1 2 0 2795.96 2759.28 3265.68
72 1 10 0 2792.43 2757.91 3264.85
73 1 2 0 2790.08 2755.23 3266.32
74 1 10 0 2787.95 2752.94 3264.03
75 1 18 0 2784.97 2752.33 3266.39
76 1 2 0 2783.39 2755.71 3267.17
77 1 10 0 2784.29 2758.95 3265.37
78 1 2 0 2786.23 2761.39 3262.86
79 1 10 0 2789.13 2760.52 3260.5
80 1 18 0 2791.33 2763.56 3260.86
81 1 2 0 2794.96 2764.48 3261.73
82 1 10 0 2798.14 2766.1 3260.73
83 1 2 0 2801.09 2764.77 3262.68
84 1 10 0 2804.46 2762.95 3263.72
85 1 18 0 2807.93 2761.51 3264.71
86 1 2 0 2808.92 2761.91 3268.03
87 1 6 0 2807.45 2759.3 3270.44
88 1 2 0 2805.32 2756.12 3270.39
89 1 10 0 2802.25 2754.1 3271.04
90 1 18 0 2799.03 2755.26 3269.08
91 1 2 0 2796.32 2752.98 3268.17
92 1 10 0 2795.21 2750.33 3265.78
93 1 2 0 2793.17 2747.35 3267.15
94 1 10 0 2791.76 2747.06 3270.65
95 1 18 0 2788.02 2748.28 3270.36
96 1 2 0 2787.06 2744.88 3271.87
97 1 10 0 2789.86 2742.86 3273.28
98 1 2 0 2788.82 2739.6 3271.3
99 1 10 0 2787.02 2737.4 3273.99
100 1 18 0 2789.69 2736.95 3276.63
101 1 2 0 2790.23 2733.31 3275.3
102 1 10 0 2793.83 2734.13 3273.89
103 1 2 0 2795.27 2737.79 3274.29
104 1 2 0 2797.05 2741.14 3273.43
105 1 3 0.75 2797.01 2743.58 3270.36
106 1 2 0 2794.06 2741.81 3268.95
107 1 10 0 2793.44 2739.34 3266.35
108 1 18 0 2795.13 2739.17 3263.02
109 1 2 0 2792.43 2737.53 3260.83
110 1 10 0 2790.36 2736.21 3258.19
111 1 2 0 2787.08 2734.25 3257.55
112 1 10 0 2786.39 2732.5 3260.77
113 1 18 0 2782.78 2733.48 3261.28
114 1 2 0 2780.54 2732.49 3264.58
115 1 6 0 2781.74 2732.24 3268.22
116 1 2 0 2785.37 2732.29 3266.62
117 1 10 0 2787.25 2735.66 3267.09
118 1 18 0 2786.78 2738.4 3264.42
119 1 2 0 2786.65 2742.23 3264.73
120 1 10 0 2789.48 2744.51 3263.92
121 1 2 0 2786.49 2746.66 3264.34
122 1 10 0 2784.4 2747.83 3261.59
123 1 18 0 2781.01 2747.93 3263.19
124 1 2 0 2779.51 2751.39 3263.6
125 1 10 0 2778.18 2751.36 3267.28
126 1 2 0 2780.82 2749.4 3269.45
127 1 10 0 2781.5 2748.13 3273.04
128 1 18 0 2781.32 2744.48 3271.5
129 1 2 0 2782.5 2744.35 3267.82
130 1 10 0 2780.82 2741.17 3266.86
131 1 2 0 2780.32 2739.1 3270.17
132 1 10 0 2779.02 2738.25 3273.59
133 1 18 0 2780 2740.78 3276.36
134 1 2 0 2777.78 2743.71 3275.58
135 1 10 0 2775.58 2746.63 3275.89
136 1 2 0 2772.23 2744.9 3275.86
137 1 10 0 2769.67 2745.44 3273.39
138 1 18 0 2766.83 2746.79 3275.55
139 1 2 0 2768.5 2749.34 3278.09
140 1 6 0 2767.67 2752.71 3279.96
141 1 2 0 2769.51 2756.08 3280.39
142 1 10 0 2770.81 2758.9 3277.95
143 1 18 0 2767.27 2760.49 3278.51
144 1 2 0 2765.33 2758.27 3275.91
145 1 10 0 2766.69 2754.84 3274.57
146 1 2 0 2769.23 2755.97 3271.9
147 1 10 0 2772.55 2754.53 3271.65
148 1 18 0 2776.28 2754.14 3272.48
149 1 2 0 2778.83 2756.91 3271.26
150 1 10 0 2778.16 2758.72 3268.08
151 1 2 0 2776.65 2756.9 3264.99
152 1 10 0 2773.67 2757.84 3262.75
153 1 18 0 2770.95 2756.47 3265.02
154 1 2 0 2771.69 2752.9 3263.82
155 1 10 0 2771.26 2748.95 3264.05
156 1 2 0 2774.18 2747.45 3265.9
157 1 2 0 2776.11 2745.28 3268.29
158 1 3 0.75 2774 2742.11 3268.03
159 1 2 0 2771.76 2739.28 3266.17
160 1 10 0 2771.72 2737.77 3262.76
161 1 18 0 2772.82 2734.47 3264.23
162 1 2 0 2776.36 2734.03 3263.06
163 1 10 0 2777.71 2735.25 3259.98
164 1 2 0 2780.65 2737.59 3259.48
165 1 10 0 2778.47 2740.88 3259.46
166 1 18 0 2776.95 2744.38 3260.32
167 1 2 0 2774.34 2747.03 3259.63
168 1 6 0 2776.83 2749.81 3259.95
169 1 2 0 2779.67 2752.07 3258.55
170 1 10 0 2776.94 2754.51 3257.77
171 1 18 0 2776.93 2758.04 3256.75
172 1 2 0 2773.92 2760.06 3258.09
173 1 10 0 2773.46 2763.62 3257.32
174 1 2 0 2776.13 2764.3 3260.44
175 1 10 0 2775.23 2764.81 3264.15
176 1 18 0 2777.82 2766.65 3265.76
177 1 2 0 2777.79 2769.17 3262.78
178 1 10 0 2780.59 2771.02 3261.15
179 1 2 0 2784.02 2769.27 3261.81
180 1 10 0 2786.5 2768.44 3264.65
181 1 18 0 2789.67 2769.97 3263.37
182 1 2 0 2790.48 2773.68 3263.64
183 1 10 0 2792.33 2776.94 3262.23
184 1 2 0 2795.7 2774.92 3263.29
185 1 10 0 2797.46 2771.83 3262.28
186 1 18 0 2800.5 2771.85 3259.81
187 1 2 0 2804.02 2772.61 3259.57
188 1 10 0 2805.35 2769.62 3257.76
189 1 2 0 2805.07 2766.16 3259.62
190 1 10 0 2803.23 2763.38 3257.96
191 1 18 0 2802.52 2759.89 3259.24
192 1 2 0 2803.37 2756.62 3257.41
193 1 6 0 2804.12 2756.04 3253.59
194 1 2 0 2804.31 2752.23 3253.76
195 1 10 0 2801.9 2749.33 3253.95
196 1 18 0 2801.43 2747.12 3257.04
197 1 2 0 2804.28 2745.41 3258.76
198 1 10 0 2806.33 2747.21 3261.41
199 1 2 0 2804.18 2749.89 3263.35
200 1 10 0 2803.34 2753.24 3261.6
201 1 18 0 2799.5 2754.35 3261.56
202 1 2 0 2798.7 2756.6 3258.62
203 1 10 0 2796.84 2759.37 3256.88
204 1 2 0 2793.88 2757.76 3258.83
205 1 10 0 2791 2754.89 3258.48
206 1 18 0 2789.13 2753.79 3255.37
207 1 2 0 2787.04 2751.34 3253.3
208 1 10 0 2783.53 2750.37 3253.65
209 1 2 0 2783.99 2747.19 3255.56
210 1 2 0 2784.93 2743.98 3257.27
211 1 3 0.75 2786.41 2740.55 3258.18
212 1 2 0 2789.29 2742.85 3257.06
213 1 10 0 2792.71 2744.57 3257.62
214 1 18 0 2794.39 2746.61 3260.5
215 1 2 0 2797.73 2746.78 3262.15
216 1 10 0 2800.74 2744.42 3262.79
217 1 2 0 2801.01 2742.12 3259.62
218 1 10 0 2800.12 2739.4 3256.94
219 1 18 0 2803.41 2739.81 3255.29
220 1 2 0 2804.67 2742.85 3253.47
221 1 6 0 2804.54 2744.97 3250.54
222 1 2 0 2803.94 2745.53 3246.93
223 1 10 0 2806.22 2745.5 3243.65
224 1 18 0 2805.93 2748.85 3241.93
225 1 2 0 2805.27 2751.38 3239.27
226 1 10 0 2804.69 2751.93 3235.6
227 1 2 0 2803.11 2755.33 3235
228 1 10 0 2804.47 2758 3237.22
229 1 18 0 2805.88 2757.13 3240.53
230 1 2 0 2803.76 2760.08 3242.27
231 1 10 0 2802.46 2759.85 3245.93
232 1 2 0 2803.31 2756.23 3246.4
233 1 10 0 2806.04 2754.39 3248.68
234 1 18 0 2808.65 2756.63 3249.83
235 1 2 0 2809.01 2757.66 3253.43
236 1 10 0 2808.73 2759.17 3256.92
237 1 2 0 2809.16 2762.67 3256.09
238 1 10 0 2808.44 2764.37 3252.76
239 1 18 0 2806.05 2763.14 3250.17
240 1 2 0 2804.82 2764.9 3247.16
241 1 10 0 2805.68 2768.72 3246.88
242 1 2 0 2806.21 2772.61 3247.33
243 1 10 0 2803.39 2773.69 3249.96
244 1 18 0 2801.83 2772.13 3253.28
245 1 2 0 2802.67 2768.54 3252.64
246 1 6 0 2800.59 2765.47 3252.75
247 1 2 0 2797.88 2764.72 3255.36
248 1 10 0 2794.04 2765.22 3255.25
249 1 18 0 2791.51 2768.06 3254.82
250 1 2 0 2789.39 2768.89 3257.91
251 1 10 0 2789.51 2772.67 3257.72
252 1 2 0 2786.42 2774.46 3259.31
253 1 10 0 2784.31 2777.24 3258.22
254 1 18 0 2786.83 2778.81 3255.5
255 1 2 0 2787.97 2779.36 3251.93
256 1 10 0 2788.26 2778.73 3248.19
257 1 2 0 2787.77 2777.41 3244.66
258 1 10 0 2790.01 2774.49 3243.61
259 1 18 0 2790.44 2771.85 3246.24
260 1 2 0 2793.39 2770.48 3248.1
261 1 10 0 2795.61 2772.4 3250.72
262 1 2 0 2792.17 2773.83 3251.3
263 1 2 0 2788.38 2774.41 3252.01
264 1 3 0.75 2784.69 2773.67 3252.21
265 1 2 0 2785.46 2771.19 3249.58
266 1 10 0 2784.13 2767.34 3249.36
267 1 18 0 2783.37 2766.15 3252.63
268 1 2 0 2780.72 2763.31 3252.68
269 1 10 0 2780.91 2759.99 3250.96
270 1 2 0 2781.93 2757.14 3253.51
271 1 10 0 2782.85 2757.59 3257.11
272 1 18 0 2782.79 2761.25 3258.52
273 1 2 0 2785.77 2761.57 3256.39
274 1 6 0 2788.34 2762.1 3253.55
275 1 2 0 2791.5 2760.65 3251.63
276 1 10 0 2790.57 2762.05 3248.24
277 1 18 0 2792.08 2765.47 3247.58
278 1 2 0 2795.59 2765.78 3248.66
279 1 10 0 2798.05 2766.37 3245.83
280 1 2 0 2797.83 2762.95 3243.99
281 1 10 0 2795.16 2760.22 3244.62
282 1 18 0 2795.38 2756.76 3245.83
283 1 2 0 2797.46 2754.52 3243.6
284 1 10 0 2800.5 2752.79 3242.06
285 1 2 0 2800.08 2749.88 3244.23
286 1 10 0 2797.29 2749.34 3246.89
287 1 18 0 2799.42 2751.84 3249.1
288 1 2 0 2797.88 2753.63 3252.22
289 1 10 0 2795.45 2752.77 3255.23
290 1 2 0 2795.19 2749.6 3252.99
291 1 10 0 2796.73 2746.42 3252.63
292 1 18 0 2797.3 2742.87 3252.43
293 1 2 0 2795.82 2739.49 3253.45
294 1 10 0 2792.68 2738.12 3252.67
295 1 2 0 2791.86 2735.59 3249.77
296 1 10 0 2792.42 2736.5 3246.16
297 1 18 0 2794.7 2734.32 3244.17
298 1 2 0 2797.83 2734.12 3241.72
299 1 6 0 2797.46 2737.9 3241.29
300 1 2 0 2796.53 2740.46 3244.01
301 1 10 0 2799.85 2740.82 3245.76
302 1 18 0 2802.58 2738.4 3244.16
303 1 2 0 2803.97 2741.23 3241.67
304 1 10 0 2802.01 2741.15 3238.35
305 1 2 0 2803.44 2744.66 3238.52
306 1 10 0 2801.23 2747.65 3238.46
307 1 18 0 2798.96 2746.16 3240.93
308 1 2 0 2795.66 2747.47 3242.45
309 1 10 0 2792.03 2748.38 3241.29
310 1 2 0 2790.61 2750.56 3244.2
311 1 10 0 2790.62 2749.74 3248.1
312 1 18 0 2792.68 2752.89 3249.14
313 1 2 0 2789.69 2755.08 3248.19
314 1 10 0 2787.33 2756.85 3250.55
315 1 2 0 2784.06 2755.4 3249.26
316 1 2 0 2781.84 2754.43 3246.33
317 1 3 0.75 2778.53 2755.6 3247.3
318 1 2 0 2776.48 2756.68 3244.3
319 1 10 0 2775.77 2760.38 3244.73
320 1 18 0 2779.35 2761.44 3244.69
321 1 2 0 2781.87 2764.04 3243.45
322 1 10 0 2785.61 2763.86 3243.12
323 1 2 0 2785.06 2760.76 3240.95
324 1 10 0 2783.71 2757.7 3242.87
325 1 18 0 2787.09 2756.3 3244.13
326 1 2 0 2789.02 2759.45 3243.99
327 1 6 0 2790.93 2760.56 3240.77
328 1 2 0 2793.84 2758.5 3239.69
329 1 10 0 2792.66 2755.09 3241.25
330 1 18 0 2792.07 2753.19 3237.91
331 1 2 0 2788.88 2751.93 3239.05
332 1 10 0 2785.92 2754.34 3238.33
333 1 2 0 2783.42 2751.37 3237.91
334 1 10 0 2785.41 2748.2 3236.81
335 1 18 0 2789 2747.18 3235.62
336 1 2 0 2790.24 2744.56 3238.15
337 1 10 0 2792.73 2742.02 3239.46
338 1 2 0 2791.04 2741.19 3242.89
339 1 10 0 2791.33 2744.09 3245.19
340 1 18 0 2790.38 2743.31 3248.83
341 1 2 0 2787.13 2743.67 3250.6
342 1 10 0 2783.45 2744.22 3251.27
343 1 2 0 2784.3 2746.71 3248.56
344 1 10 0 2786.13 2747.1 3245.42
345 1 18 0 2783.82 2749.47 3243.69
346 1 2 0 2782.51 2746.7 3241.61
347 1 10 0 2783.46 2743.14 3240.4
348 1 2 0 2786.8 2741.22 3240.43
349 1 10 0 2786.77 2739.19 3237.2
350 1 18 0 2787.89 2735.8 3238.29
351 1 2 0 2787.54 2735.47 3241.94
352 1 6 0 2786.55 2737.28 3245.25
353 1 2 0 2786.65 2734.64 3248.12
354 1 10 0 2786.15 2736.96 3251.03
355 1 18 0 2783.43 2736.08 3253.63
356 1 2 0 2781.65 2739.33 3253.14
357 1 10 0 2778.28 2740.71 3253.32
358 1 2 0 2776.36 2743.13 3251.21
359 1 10 0 2772.54 2742.56 3251.77
360 1 18 0 2771.86 2742.34 3255.61
361 1 2 0 2773.66 2739.63 3257.48
362 1 10 0 2773.77 2736.41 3255.61
363 1 2 0 2773.7 2733.94 3252.68
364 1 10 0 2771.41 2734.98 3249.92
365 1 18 0 2769.78 2736.98 3247.29
366 1 2 0 2771.95 2740.27 3246.67
367 1 10 0 2770.18 2743.67 3246.44
368 1 2 0 2773.37 2745.61 3247.1
369 1 2 0 2770.94 2748.54 3246.66
370 1 3 0.75 2771.34 2750.49 3243.54
371 1 2 0 2770.66 2753.89 3245.31
372 1 10 0 2771.17 2754.9 3248.85
373 1 18 0 2772.76 2754.17 3252.32
374 1 2 0 2774.16 2750.91 3250.9
375 1 10 0 2777.46 2749.28 3251.71
376 1 2 0 2778.92 2747.6 3248.6
377 1 10 0 2778.78 2746.3 3244.95
378 1 18 0 2777.27 2744.05 3242.26
379 1 2 0 2774.3 2741.89 3241.07
380 1 6 0 2774.01 2739.4 3238.06
381 1 2 0 2773.57 2736.52 3240.41
382 1 10 0 2774.85 2736.81 3244.3
383 1 18 0 2776.95 2739.44 3245.95
384 1 2 0 2776.12 2737.8 3249.29
385 1 10 0 2778.27 2734.58 3250.36
386 1 2 0 2778.84 2732.26 3247.26
387 1 10 0 2776.88 2729.01 3246.46
388 1 18 0 2774.18 2728.55 3244.11
389 1 2 0 2774.87 2730.89 3241.04
390 1 10 0 2777.78 2729.77 3239.01
391 1 2 0 2776.89 2726.22 3239.3
392 1 10 0 2779.79 2724 3238.22
393 1 18 0 2782.56 2725.02 3240.91
394 1 2 0 2785.64 2722.42 3240.29
395 1 10 0 2787.62 2723.25 3243.62
396 1 2 0 2787.99 2726.78 3242.24
397 1 10 0 2789.26 2730.03 3243.67
398 1 18 0 2785.65 2731.06 3244.37
399 1 2 0 2783.27 2731.54 3241.43
400 1 10 0 2781.87 2735.16 3241.3
401 1 2 0 2780.67 2735.23 3237.54
402 1 10 0 2779.74 2738.94 3236.94
403 1 18 0 2777.31 2737.33 3234.43
404 1 2 0 2776.18 2733.88 3235.76
405 1 6 0 2775.01 2731.2 3233.18
406 1 2 0 2772.43 2728.79 3231.64
407 1 10 0 2769.56 2728.24 3234.01
408 1 18 0 2767.76 2731.5 3234.8
409 1 2 0 2767.45 2735.33 3234.97
410 1 10 0 2764.22 2736.3 3233.95
411 1 2 0 2765.29 2739.92 3234.42
412 1 10 0 2767.36 2743.03 3234.26
413 1 18 0 2768.22 2746.22 3232.11
414 1 2 0 2770.3 2749.55 3232.19
415 1 10 0 2771.01 2753.24 3232.16
416 1 2 0 2773.56 2753.43 3235.19
417 1 10 0 2773.05 2756.89 3236.75
418 1 18 0 2773.53 2760.38 3235.28
419 1 2 0 2771.72 2763.8 3235.94
420 1 10 0 2770.82 2765.78 3238.78
421 1 2 0 2773.77 2764.96 3240.91
422 1 2 0 2776.86 2763.11 3239.91
423 1 3 0.75 2777.81 2759.54 3239.16
424 1 2 0 2777.96 2755.62 3238.94
425 1 9 0 2777.91 2752.23 3240.23
426 2 10 0 2833.2 2779.02 3273.51
427 2 18 0 2831.67 2775.51 3272.51
428 2 2 0 2829.27 2774.34 3269.75
429 2 10 0 2828.84 2772.83 3266.3
430 2 2 0 2832.81 2773.46 3266
431 2 10 0 2836.81 2773.68 3266.35
432 2 18 0 2837.05 2770.57 3264.11
433 2 2 0 2840.78 2771.83 3264.01
434 2 6 0 2842.21 2768.32 3264.13
435 2 2 0 2839.6 2766.51 3266.42
436 2 10 0 2835.94 2765.59 3267.17
437 2 18 0 2833.95 2768.08 3269.26
438 2 2 0 2831.74 2767.94 3272.54
439 2 10 0 2834.55 2769.74 3274.64
440 2 2 0 2836.37 2772.9 3275.35
441 2 10 0 2838.76 2775.92 3275.82
442 2 18 0 2837.5 2775.94 3279.6
443 2 2 0 2835.78 2772.68 3280.71
444 2 10 0 2832.08 2773.3 3279.96
445 2 2 0 2829.23 2770.87 3279.57
446 2 10 0 2826.34 2769.78 3277.41
447 2 18 0 2826.5 2770.28 3273.63
448 2 2 0 2823.01 2769.32 3272.6
449 2 10 0 2820.99 2772.23 3274.18
450 2 2 0 2819.69 2772.11 3270.68
451 2 10 0 2816.25 2770.39 3270.58
452 2 18 0 2814.61 2771.06 3273.93
453 2 2 0 2814.87 2767.46 3275.6
454 2 10 0 2816.76 2768.29 3278.88
455 2 2 0 2819.5 2767.24 3276.1
456 2 10 0 2821.69 2764.38 3274.76
457 2 18 0 2822.74 2764.1 3278.33
458 2 2 0 2824.97 2760.88 3278.28
459 2 6 0 2828.42 2761.76 3276.88
460 2 2 0 2827.9 2764.12 3274.08
461 2 10 0 2827.96 2762.84 3270.48
462 2 18 0 2828.97 2760.03 3268.33
463 2 2 0 2826.46 2757.24 3269.5
464 2 10 0 2826.04 2757 3273.22
465 2 2 0 2829.37 2756.37 3275.18
466 2 10 0 2829.2 2752.98 3276.75
467 2 18 0 2831.7 2749.96 3276.98
468 2 2 0 2834.78 2749.74 3274.52
469 2 10 0 2837.8 2747.88 3272.9
470 2 2 0 2840.73 2750.43 3273.49
471 2 10 0 2840.19 2754.13 3274.36
472 2 18 0 2837.31 2755.59 3272.5
473 2 2 0 2835.88 2758.99 3270.96
474 2 10 0 2833.74 2761.05 3273.38
475 2 2 0 2834.68 2764.21 3275.51
476 2 2 0 2835.64 2766.52 3278.22
477 2 3 0.75 2839.43 2767.17 3278.21
478 2 2 0 2840.32 2768.3 3274.69
479 2 10 0 2840.95 2769.61 3271.05
480 2 18 0 2843.3 2772.59 3270.98
481 2 2 0 2846.13 2774.35 3269.37
482 2 10 0 2845.53 2778.21 3269.57
483 2 2 0 2842.92 2780.53 3270.39
484 2 10 0 2839.93 2778.76 3268.3
485 2 18 0 2836.41 2780.26 3268.72
486 2 2 0 2833.26 2778.5 3267.78
487 2 6 0 2833.14 2778.88 3264.06
488 2 2 0 2830.98 2776.73 3262.14
489 2 10 0 2827.52 2778.32 3261.71
490 2 18 0 2823.85 2779.35 3262.49
491 2 2 0 2821.66 2776.42 3263.8
492 2 10 0 2821.7 2772.62 3262.59
493 2 2 0 2818.5 2770.47 3263.53
494 2 10 0 2815.21 2768.92 3263
495 2 18 0 2815.29 2766.66 3266.18
496 2 2 0 2814.13 2763.96 3268.71
497 2 10 0 2816.69 2764.74 3271.25
498 2 2 0 2819.33 2763.48 3268.68
499 2 10 0 2822.31 2764.61 3266.61
500 2 18 0 2824.57 2762.04 3264.87
501 2 2 0 2826.95 2764.3 3263.11
502 2 10 0 2829.63 2766.45 3264.17
503 2 2 0 2831.91 2764.26 3261.87
504 2 10 0 2834.96 2762.75 3260.03
505 2 18 0 2838.32 2762.44 3258.39
506 2 2 0 2841.07 2762.28 3261.04
507 2 10 0 2842.31 2761.01 3264.42
508 2 2 0 2841.92 2760.58 3268.32
509 2 10 0 2844.33 2762.2 3270.96
510 2 18 0 2844.5 2758.69 3272.85
511 2 2 0 2843.78 2755.59 3270.98
512 2 6 0 2844.92 2756.03 3267.27
513 2 2 0 2841.3 2755.45 3266.48
514 2 10 0 2840.98 2752 3268.07
515 2 18 0 2837.2 2751.53 3267.85
516 2 2 0 2833.29 2751.72 3268.17
517 2 10 0 2830.51 2752.15 3270.57
518 2 2 0 2829.99 2748.57 3270.38
519 2 10 0 2826.31 2747.79 3270.79
520 2 18 0 2826.95 2744.46 3272.62
521 2 2 0 2827.77 2740.85 3273.42
522 2 10 0 2831.29 2741.43 3274.66
523 2 2 0 2835 2742.29 3274.4
524 2 10 0 2838.5 2741.15 3273.74
525 2 18 0 2841.99 2740.3 3274.92
526 2 2 0 2844.61 2742.34 3272.82
527 2 10 0 2846.22 2745.81 3271.99
528 2 2 0 2849.66 2744.23 3272.38
529 2 2 0 2852.91 2743.24 3270.87
530 2 3 0.75 2852.14 2739.4 3271.51
531 2 2 0 2848.8 2739.3 3273.62
532 2 10 0 2847.19 2736.67 3275.87
533 2 18 0 2844.64 2734.48 3273.71
534 2 2 0 2844.31 2735.91 3270.34
535 2 10 0 2842.42 2738.99 3268.86
536 2 2 0 2840.05 2742.12 3268.38
537 2 10 0 2837.02 2742.91 3266.31
538 2 18 0 2833.32 2744.17 3266.93
539 2 2 0 2830.21 2742.52 3268.14
540 2 6 0 2827.33 2743.88 3266.36
541 2 2 0 2824.71 2741.25 3265.62
542 2 10 0 2822.53 2742.51 3268.27
543 2 18 0 2820.19 2745.08 3269.7
544 2 2 0 2820.53 2748.79 3268.52
545 2 10 0 2820.11 2752.55 3268.3
546 2 2 0 2816.6 2752.78 3267.01
547 2 10 0 2816.25 2756.5 3266.22
548 2 18 0 2813.38 2758.51 3267.36
549 2 2 0 2811.11 2755.98 3268.69
550 2 10 0 2809.36 2753.64 3266.27
551 2 2 0 2806.99 2750.89 3267.24
552 2 10 0 2808.51 2747.56 3268.36
553 2 18 0 2809.43 2743.81 3268.32
554 2 2 0 2810.88 2742.2 3265.36
555 2 10 0 2811.44 2739.17 3263.04
556 2 2 0 2812.12 2737.23 3266.26
557 2 10 0 2812.49 2733.72 3267.32
558 2 18 0 2811.6 2733.58 3270.99
559 2 2 0 2811.29 2736.05 3273.91
560 2 10 0 2813.86 2736.85 3276.68
561 2 2 0 2814.7 2740.78 3275.79
562 2 10 0 2815.47 2742.97 3272.88
563 2 18 0 2815.25 2746.97 3272.81
564 2 2 0 2813.95 2749.93 3274.6
565 2 6 0 2814.06 2753.6 3274
566 2 2 0 2814.22 2756.63 3276.03
567 2 10 0 2812.34 2759.59 3276.89
568 2 18 0 2812.28 2762.02 3274.03
569 2 2 0 2809.36 2764.18 3273.75
570 2 10 0 2806.5 2763.39 3276.19
571 2 2 0 2803.87 2764.03 3273.43
572 2 10 0 2804.94 2765.89 3270.44
573 2 18 0 2807.98 2767.7 3269.22
574 2 2 0 2809.88 2768.5 3265.88
575 2 10 0 2809.22 2771.93 3264.42
576 2 2 0 2809.41 2770.11 3261.14
577 2 10 0 2810.92 2768.05 3258.18
578 2 18 0 2810.62 2764.99 3260.62
579 2 2 0 2813.57 2763.16 3261.83
580 2 10 0 2812.42 2759.37 3261.5
581 2 2 0 2813.17 2756.68 3258.81
582 2 2 0 2815.44 2753.99 3256.74
583 2 3 0.75 2814.87 2754.35 3253.13
584 2 2 0 2811.14 2753.22 3254.11
585 2 10 0 2809.07 2753.15 3257.41
586 2 18 0 2808.34 2749.47 3256.46
587 2 2 0 2811.9 2749.12 3256.94
588 2 10 0 2812.19 2746.74 3260.18
589 2 2 0 2815.92 2747.57 3260.05
590 2 10 0 2819.61 2747.32 3260.55
591 2 18 0 2822.59 2748.29 3262.97
592 2 2 0 2825.33 2748.53 3260.3
593 2 6 0 2828.7 2749.78 3261.43
594 2 2 0 2827.82 2752.48 3264.11
595 2 10 0 2827.47 2755.44 3261.81
596 2 18 0 2828.61 2759.13 3261.97
597 2 2 0 2826.56 2760.25 3259.07
598 2 10 0 2825.77 2762.53 3256.34
599 2 2 0 2825.6 2765.7 3258.15
600 2 10 0 2822.91 2768.27 3258.91
601 2 18 0 2822.86 2770.57 3255.81
602 2 2 0 2825.64 2769.83 3253.74
603 2 10 0 2828.84 2768.6 3255.38
604 2 2 0 2829.51 2769.56 3258.99
605 2 10 0 2832.49 2772.01 3258.33
606 2 18 0 2836.09 2772.46 3258.87
607 2 2 0 2838.47 2775.22 3259.46
608 2 10 0 2840.76 2778.02 3258.48
609 2 2 0 2844.36 2779.18 3258.33
610 2 10 0 2848.08 2780.63 3258.57
611 2 18 0 2851.17 2781.03 3260.73
612 2 2 0 2850.82 2777.94 3262.63
613 2 10 0 2849.8 2774.84 3264.65
614 2 2 0 2851.91 2771.95 3265.98
615 2 10 0 2850.14 2768.62 3266.39
616 2 18 0 2847.97 2767.74 3263.25
617 2 2 0 2846.45 2764.49 3264.23
618 2 6 0 2848.34 2761.64 3265.86
619 2 2 0 2850.74 2761.3 3268.88
620 2 10 0 2849.82 2757.61 3269.2
621 2 18 0 2850.76 2754 3268.5
622 2 2 0 2852.42 2751.87 3271.02
623 2 10 0 2852.32 2748.24 3269.81
624 2 2 0 2849.55 2746.32 3268.04
625 2 10 0 2847.73 2746.09 3264.76
626 2 18 0 2844.87 2743.98 3264.44
627 2 2 0 2844.92 2740.3 3263.45
628 2 10 0 2847.71 2738.15 3261.94
629 2 2 0 2850.67 2739.49 3260.26
630 2 10 0 2852.65 2741.98 3262.4
631 2 18 0 2854 2745.61 3261.91
632 2 2 0 2851.56 2748.46 3260.49
633 2 10 0 2850.66 2751.37 3262.58
634 2 2 0 2847.28 2751.34 3264.5
635 2 2 0 2845.52 2753.45 3261.8
636 2 3 0.75 2842.81 2754.04 3259.4
637 2 2 0 2840.61 2757.12 3260.16
638 2 10 0 2836.94 2756.64 3260.55
639 2 18 0 2833.87 2757.09 3262.89
640 2 2 0 2833.44 2753.38 3262.75
641 2 10 0 2834.86 2750.09 3261.56
642 2 2 0 2837.56 2750.71 3258.79
643 2 10 0 2838.4 2747.19 3258.03
644 2 18 0 2838.56 2743.89 3256.26
645 2 2 0 2842.11 2742.31 3256.95
646 2 6 0 2843.29 2745.44 3258.36
647 2 2 0 2845.37 2745.64 3255.12
648 2 10 0 2848.53 2746.88 3256.48
649 2 18 0 2850.57 2749.75 3255.24
650 2 2 0 2853.49 2751.63 3256.63
651 2 10 0 2853.27 2755.21 3258.12
652 2 2 0 2854.93 2757.12 3260.96
653 2 10 0 2851.77 2757.86 3262.85
654 2 18 0 2851.43 2760.88 3260.37
655 2 2 0 2851.31 2763.88 3262.73
656 2 10 0 2854.89 2764.51 3264.44
657 2 2 0 2857.13 2764.87 3261.38
658 2 10 0 2859.19 2762.82 3258.57
659 2 18 0 2857.03 2762.54 3255.41
660 2 2 0 2858.18 2762.65 3251.69
661 2 10 0 2859.35 2762.25 3248
662 2 2 0 2858.1 2765.68 3246.92
663 2 10 0 2857.59 2769.15 3248.24
664 2 18 0 2856.98 2771.25 3251.51
665 2 2 0 2855.06 2774.62 3251.08
666 2 10 0 2853.1 2776.18 3253.92
667 2 2 0 2851.12 2774.02 3256.21
668 2 10 0 2848.28 2772.59 3258.18
669 2 18 0 2844.84 2771.43 3259.11
670 2 2 0 2845.11 2768.06 3257.23
671 2 6 0 2841.55 2767.71 3255.73
672 2 2 0 2838.37 2768.42 3253.85
673 2 10 0 2835.26 2767.24 3255.73
674 2 18 0 2833.55 2765.5 3252.68
675 2 2 0 2830.23 2763.7 3253.77
676 2 10 0 2829.16 2760.98 3251.22
677 2 2 0 2826.19 2761.4 3248.81
678 2 10 0 2824.48 2758.2 3250.13
679 2 18 0 2823.2 2758.15 3253.78
680 2 2 0 2820.17 2757.25 3255.79
681 2 10 0 2819.54 2756.87 3259.39
682 2 2 0 2817.95 2759.46 3261.65
683 2 10 0 2820.34 2762.16 3260.27
684 2 18 0 2820.29 2763.92 3256.8
685 2 2 0 2820.24 2763.64 3252.96
686 2 10 0 2818.84 2761.01 3250.48
687 2 2 0 2820.26 2762.64 3247.49
688 2 2 0 2819.5 2759.38 3245.58
689 2 3 0.75 2818.63 2755.79 3244.67
690 2 2 0 2817.46 2754.53 3248.08
691 2 10 0 2819.34 2751.87 3250
692 2 18 0 2822.03 2751.9 3252.85
693 2 2 0 2822.9 2748.69 3254.98
694 2 10 0 2826.46 2748.41 3253.82
695 2 2 0 2829.24 2750.88 3253.16
696 2 10 0 2829.26 2754.74 3253.21
697 2 18 0 2832.28 2756.38 3251.95
698 2 2 0 2835.27 2757.9 3250.03
699 2 6 0 2834.44 2759.17 3246.51
700 2 2 0 2837.62 2761.28 3247.29
701 2 10 0 2838.48 2764.97 3247.74
702 2 18 0 2842.44 2765.4 3247.96
703 2 2 0 2845.68 2767.48 3247.69
704 2 10 0 2845.02 2770.98 3246.49
705 2 2 0 2847.79 2772.42 3248.34
706 2 10 0 2850.68 2771.27 3250.44
707 2 18 0 2850.18 2769.4 3253.62
708 2 2 0 2851.48 2766.35 3251.71
709 2 10 0 2851.2 2762.85 3250.25
710 2 2 0 2850.18 2759.72 3251.96
711 2 10 0 2846.43 2758.23 3252.37
712 2 18 0 2843.78 2761.15 3252.14
713 2 2 0 2840.45 2759.56 3252.01
714 2 10 0 2840.02 2755.93 3251.01
715 2 2 0 2839.62 2752.19 3250.28
716 2 10 0 2840.72 2749.37 3252.67
717 2 18 0 2837.51 2747.58 3251.98
718 2 2 0 2838.96 2744.1 3251.18
719 2 10 0 2842.23 2742.02 3251.2
720 2 2 0 2845.35 2740.26 3252.94
721 2 10 0 2848.67 2740.62 3254.95
722 2 18 0 2852.41 2741.21 3254.59
723 2 2 0 2853.6 2744.35 3255.96
724 2 6 0 2855.31 2746.15 3253.14
725 2 2 0 2856.9 2743.93 3250.27
726 2 10 0 2858.54 2746.37 3248.03
727 2 18 0 2857.16 2749.88 3249.07
728 2 2 0 2853.71 2751.35 3250.15
729 2 10 0 2850.7 2750.17 3248.25
730 2 2 0 2849.41 2746.7 3247.56
731 2 10 0 2849.64 2743.14 3248.77
732 2 18 0 2851.36 2739.64 3249.25
733 2 2 0 2849.57 2736.24 3248.36
734 2 10 0 2845.86 2736.38 3247.11
735 2 2 0 2846.75 2736.45 3243.39
736 2 10 0 2843.72 2736.51 3241.06
737 2 18 0 2841.23 2738.95 3240.24
738 2 2 0 2838.66 2741.66 3240.73
739 2 10 0 2838.18 2744.22 3243.71
740 2 2 0 2838.21 2746.46 3246.66
741 2 2 0 2836.41 2749.31 3244.94
742 2 3 0.75 2835.08 2752.7 3245.52
743 2 2 0 2831.94 2752.32 3243.5
744 2 10 0 2829.01 2753.03 3241.12
745 2 18 0 2831.31 2754.57 3238.58
746 2 2 0 2834.79 2754.26 3240.04
747 2 10 0 2838.48 2754.23 3240.61
748 2 2 0 2840.15 2756.97 3242.98
749 2 10 0 2843.28 2755.96 3245.06
750 2 18 0 2845.8 2754.19 3247.47
751 2 2 0 2845.35 2750.74 3248.91
752 2 6 0 2843.3 2748.16 3247.05
753 2 2 0 2845.69 2746.38 3244.75
754 2 10 0 2847.74 2744.23 3242.62
755 2 18 0 2850.93 2745.9 3242.15
756 2 2 0 2851.99 2749.52 3241.82
757 2 10 0 2851.84 2752.75 3239.93
758 2 2 0 2848.38 2751.65 3238.9
759 2 10 0 2845.14 2752.05 3241.05
760 2 18 0 2842.03 2750.21 3241.8
761 2 2 0 2839.04 2748.59 3239.93
762 2 10 0 2836.78 2747.43 3237.12
763 2 2 0 2833.79 2747.45 3239.48
764 2 10 0 2830.05 2746.69 3240.18
765 2 18 0 2826.38 2747.77 3240.47
766 2 2 0 2825.26 2749.01 3243.96
767 2 10 0 2826.33 2747.29 3247.11
768 2 2 0 2829.33 2747.36 3249.47
769 2 10 0 2832.43 2745.73 3247.85
770 2 18 0 2832.69 2742.2 3246.62
771 2 2 0 2835.61 2740.14 3247.79
772 2 10 0 2838.67 2738.15 3246.81
773 2 2 0 2838.92 2736.92 3250.3
774 2 10 0 2838.97 2737.56 3254.03
775 2 18 0 2835.3 2738.47 3253.29
776 2 2 0 2832.98 2741.66 3253.21
777 2 6 0 2830 2739.98 3251.28
778 2 2 0 2827.48 2737.18 3252.16
779 2 10 0 2824.41 2739.71 3252.54
780 2 18 0 2825.64 2742.44 3254.9
781 2 2 0 2828.73 2740.66 3256.43
782 2 10 0 2828.54 2742.02 3259.93
783 2 2 0 2827.5 2739.36 3262.41
784 2 10 0 2824.75 2737 3262.15
785 2 18 0 2822.49 2734.04 3261.72
786 2 2 0 2819.38 2735.48 3263.39
787 2 10 0 2817.98 2738.62 3265.08
788 2 2 0 2820.28 2739.9 3262.36
789 2 10 0 2820.54 2740.33 3258.58
790 2 18 0 2819.08 2738.84 3255.3
791 2 2 0 2816.55 2736.6 3256.72
792 2 10 0 2815.13 2733.6 3254.98
793 2 2 0 2811.76 2731.94 3255.31
794 2 2 0 2810.71 2735.61 3256.09
795 2 3 0.75 2808.07 2737.31 3253.65
796 2 2 0 2810.66 2740.12 3254.51
797 2 10 0 2813.07 2741.75 3256.73
798 2 18 0 2814.77 2744.79 3255.39
799 2 2 0 2817.25 2747.37 3254.29
800 2 10 0 2819.88 2745.71 3252.34
801 2 2 0 2819.86 2746.28 3248.59
802 2 10 0 2820.09 2746.28 3244.69
803 2 18 0 2820.39 2749.65 3243.07
804 2 2 0 2817.95 2748 3240.62
805 2 6 0 2816.26 2744.8 3239.19
806 2 2 0 2815.24 2742.82 3242.01
807 2 10 0 2815.88 2741.26 3245.48
808 2 18 0 2815.62 2741.03 3249.4
809 2 2 0 2818.03 2738.29 3250.29
810 2 10 0 2819.54 2735.52 3248.11
811 2 2 0 2822.69 2734.56 3246.37
812 2 10 0 2825.24 2733.53 3243.59
813 2 18 0 2829.08 2732.86 3243.71
814 2 2 0 2829.52 2734.61 3247.34
815 2 10 0 2833.42 2734.75 3248.65
816 2 2 0 2833.27 2736.92 3245.53
817 2 10 0 2834.85 2736.14 3242.19
818 2 18 0 2832.35 2737.97 3239.96
819 2 2 0 2833.92 2738.89 3236.89
820 2 10 0 2833.53 2742.54 3236.6
821 2 2 0 2831.46 2742.97 3233.36
822 2 10 0 2829.32 2741.81 3230.6
823 2 18 0 2827.71 2738.51 3231.95
824 2 2 0 2828.94 2739.1 3235.51
825 2 10 0 2826.13 2740.18 3237.9
826 2 2 0 2825.98 2742.59 3240.76
827 2 10 0 2824.82 2742 3244.32
828 2 18 0 2822.54 2739.14 3242.68
829 2 2 0 2821.62 2737.41 3239.22
830 2 6 0 2818.32 2738.93 3238.12
831 2 2 0 2818.82 2736.31 3235.36
832 2 10 0 2817.02 2733.45 3236.78
833 2 18 0 2814.98 2730.29 3236.01
834 2 2 0 2812.92 2727.33 3236.81
835 2 10 0 2811.04 2728.98 3239.66
836 2 2 0 2812.62 2730.57 3242.87
837 2 10 0 2815.31 2732.97 3243.87
838 2 18 0 2813.54 2736.09 3243.21
839 2 2 0 2812.04 2737.7 3240.2
840 2 10 0 2809.02 2739.96 3239.38
841 2 2 0 2810.99 2742.94 3241.07
842 2 10 0 2809.49 2745.43 3238.4
843 2 18 0 2810.64 2748.97 3239.27
844 2 2 0 2812.56 2749.24 3242.53
845 2 10 0 2812.37 2750.51 3246.27
846 2 2 0 2814.84 2747.67 3246.9
847 2 2 0 2813.76 2746.63 3250.41
848 2 3 0.75 2810.18 2746.12 3249.49
849 2 2 0 2809.73 2743.46 3246.87
850 2 9 0 2808.08 2740.17 3247.2
851 3 10 0 2870.26 2778.52 3266.99
852 3 18 0 2873.34 2779.76 3268.51
853 3 2 0 2876.81 2781.48 3267.53